
Host: a7pc99

Timers On : Mon Jul  8 18:20:59 2019
Timers Off: Mon Jul  8 18:28:17 2019

Wall Time:      437.61 seconds

                                                       Time (seconds)
Module                                       User      System        Wall        Calls

--------------------------------------------------------------------------------------

**************************************************************************************
